
512 atoms
368 bonds
320 angles
0 dihedrals

13 atom types
10 bond types
18 angle types
9 dihedral types

0      13.2725 xlo xhi
0      24.2286 ylo yhi
0      24.4342 zlo zhi
3.1818   -0.049718     0.18902 xy xz yz

Masses

 1      15.9994
 2        40.08
 3      15.9994
 4      15.9994
 5      15.9994
 6        40.08
 7       28.086
 8       28.086
 9      15.9994
10      1.00797
11        1.008
12      1.00797
13      12.0112


Pair Coeffs

 1         0.14       2.7796
 2         0.29      3.02906
 3         0.12      3.09142
 4         0.19      3.38542
 5         0.16      3.02906
 6         0.29      2.89542
 7         0.51      4.05359
 8         0.51      4.05359
 9     0.155416      3.16552
10            0            0
11     0.015997     0.966665
12        0.038      2.44997
13        0.039      3.87541


Bond Coeffs

 1           300          1.62
 2           300          1.68
 3           495         0.945
 4           300          1.59
 5           300          1.71
 6           300          1.67
 7      540.6336          0.96
 8           238         1.809
 9      340.6175         1.105
10      322.7158         1.526


Angle Coeffs

 1            50           115
 2           170           144
 3           170           139
 4           170         112.5
 5           170         111.5
 6           170         100.2
 7           170           113
 8           170           111
 9           170           107
10            50         104.5
11           170           111
12           170           107
13          44.1         117.3
14          39.5         106.4
15          44.4           110
16          34.6         112.3
17          34.6         112.3
18          46.6         110.5


Dihedral Coeffs

1        -0.1           1           3
2      0.1111           1           3
3        -0.1           1           3
4      0.1111           1           3
5      0.1581           1           3
6      0.1581           1           3
7      0.1581           1           3
8      0.1581           1           3
9      0.1581           1           3


Atoms

  1             0             2           1.5      6.467356      12.36679      4.982418
  2             0             2           1.5      4.592656      9.189952      5.196776
  3             0             7             1       3.12834       12.0427      3.895918
  4             0             7             1      5.531731      15.49517      4.046312
  5             0             5      -0.77375      2.429813      10.59545      3.480375
  6             0             1      -1.13375      7.098735     0.9351145      4.468984
  7             0             1      -1.13375       4.25533      11.68763      4.981326
  8             0             3      -0.86375      3.762251      12.48028      2.442642
  9             0             3      -0.86375      5.427786      14.41166      2.828099
 10             0             1      -1.13375      9.187251      3.974661      4.513123
 11             0             1      -1.13375      6.351258      14.71904      5.191063
 12             0             2           1.5       3.61658      12.05832       7.32255
 13             0             2           1.5      5.871473      14.96922      7.501716
 14             0             7             1      6.985245      11.79303      8.329359
 15             0             7             1      5.205602      9.214773      8.459208
 16             0             3      -0.86375      7.353067      12.64339      9.658985
 17             0             1      -1.13375      8.250889      11.20663      7.571886
 18             0             1      -1.13375      6.057909      12.66422      7.356893
 19             0             5      -0.77375       6.07521      10.54306      8.888171
 20             0             1      -1.13375      6.129252      8.211762      7.632272
 21             0             1      -1.13375      3.992638      9.699468      7.519747
 22             0             3      -0.86375      4.696344      8.716474       9.91093
 23             0             2           1.5      10.60986       18.4031      4.993228
 24             0             2           1.5      8.710175      15.25359      5.144087
 25             0             7             1      7.246576      18.09288      3.930606
 26             0             7             1      9.662835      21.51924      4.069623
 27             0             5      -0.77375      6.521035       16.6849      3.487219
 28             0             1      -1.13375      11.23676       6.98375      4.556983
 29             0             1      -1.13375      8.398054      17.72939      4.986856
 30             0             3      -0.86375      7.796845      18.60029      2.473488
 31             0             3      -0.86375      9.584327      20.45269      2.834205
 32             0             1      -1.13375      13.31946      10.00073      4.526706
 33             0             1      -1.13375      10.47842      20.76241      5.222088
 34             0             2           1.5      7.747328       18.1215      7.327821
 35             0             2           1.5      9.984843      21.03261      7.539131
 36             0             7             1      11.11746      17.84113       8.33382
 37             0             7             1       9.32714      15.26512      8.431704
 38             0             3      -0.86375      11.51566      18.65799      9.673214
 39             0             1      -1.13375      12.36619       17.2497      7.549005
 40             0             1      -1.13375      10.18437      18.72947      7.379801
 41             0             5      -0.77375      10.18397      16.59574      8.873322
 42             0             1      -1.13375      10.24386      14.26982      7.592001
 43             0             1      -1.13375      8.102106      15.74756       7.51249
 44             0             3      -0.86375      8.842321      14.75465      9.893657
 45             0             2           1.5      9.007848      6.289998      4.703617
 46             0             2           1.5      7.096285       3.13802       4.84204
 47             0             7             1      5.541184      6.004666      3.822707
 48             0             7             1      7.845119      9.465718      3.860363
 49             0             5      -0.77375       4.74848      4.643073      3.388834
 50             0             1      -1.13375      4.609562       6.97284      4.675475
 51             0             1      -1.13375      6.799885      5.561027      4.706075
 52             0             3      -0.86375       5.91073      6.530943      2.329325
 53             0             3      -0.86375      7.466415      8.611698      2.532552
 54             0             1      -1.13375      6.584005       10.0207      4.647449
 55             0             1      -1.13375      8.808785      8.612917      4.813794
 56             0             2           1.5      6.147448      6.005989      7.076787
 57             0             2           1.5      8.359749      8.898853      7.214719
 58             0             7             1      9.322727       5.76305      8.132426
 59             0             7             1      7.606203      3.134273      8.280252
 60             0             3      -0.86375      9.466073      6.778229       9.39406
 61             0             1      -1.13375      5.645102      17.26556        7.6344
 62             0             1      -1.13375      8.504743      6.567781      7.012956
 63             0             5      -0.77375      8.287536      4.591658      8.693882
 64             0             1      -1.13375      3.643612      14.25755      7.694405
 65             0             1      -1.13375      6.469688      3.485147      7.201803
 66             0             3      -0.86375      7.005182      2.670659      9.741966
 67             0             2           1.5      13.08593      12.31273      4.610791
 68             0             2           1.5      11.22863      9.187693      4.901187
 69             0             7             1       9.60885       12.0494      3.767714
 70             0             7             1       11.9857      15.52185      3.818506
 71             0             5      -0.77375      8.698763      10.76256      3.294538
 72             0             1      -1.13375       8.72717      13.02026      4.676326
 73             0             1      -1.13375      10.85019      11.51977      4.629785
 74             0             3      -0.86375      10.06201      12.66233      2.344665
 75             0             3      -0.86375       11.6505       14.7761      2.400069
 76             0             1      -1.13375      10.71086      16.08401      4.577709
 77             0             1      -1.13375      12.86899      14.58792      4.773603
 78             0             2           1.5      10.21836       12.0714       6.99517
 79             0             2           1.5      12.47153       14.9263      7.181019
 80             0             7             1      13.37403      11.83556      8.059248
 81             0             7             1      11.71523      9.223002      8.315423
 82             0             3      -0.86375      13.46091       12.9861      9.224602
 83             0             1      -1.13375      9.731878      23.36231      7.631671
 84             0             1      -1.13375      12.54567       12.5502      6.892226
 85             0             5      -0.77375      12.41099      10.66652      8.726144
 86             0             1      -1.13375       7.74361       20.3193       7.75155
 87             0             1      -1.13375      10.58697      9.561445      7.223685
 88             0             3      -0.86375      11.06964      8.783331      9.765291
 89             0             2           1.5      11.51238     0.2526987      4.982418
 90             0             2           1.5      12.82005      21.30404      5.196776
 91             0             7             1      11.35573      24.15679      3.895918
 92             0             7             1      10.57676       3.38108      4.046312
 93             0             5      -0.77375      10.65721      22.70954      3.480375
 94             0             1      -1.13375      2.053705       13.0492      4.468984
 95             0             1      -1.13375      12.48272      23.80172      4.981326
 96             0             3      -0.86375      8.807281     0.3661881      2.442642
 97             0             3      -0.86375      10.47282      2.297569      2.828099
 98             0             1      -1.13375      4.142222      16.08875      4.513123
 99             0             1      -1.13375      11.39629      2.604949      5.191063
100             0             2           1.5      11.84397      24.17241       7.32255
101             0             2           1.5       10.9165      2.855135      7.501716
102             0             7             1      15.21264      23.90712      8.329359
103             0             7             1        13.433      21.32886      8.459208
104             0             3      -0.86375       12.3981     0.5293003      9.658985
105             0             1      -1.13375       3.20586      23.32072      7.571886
106             0             1      -1.13375      11.10294     0.5501263      7.356893
107             0             5      -0.77375       14.3026      22.65715      8.888171
108             0             1      -1.13375      14.35664      20.32585      7.632272
109             0             1      -1.13375      12.22003      21.81356      7.519747
110             0             3      -0.86375      12.92374      20.83056       9.91093
111             0             2           1.5      2.382464      6.289014      4.993228
112             0             2           1.5     0.4827825      3.139501      5.144087
113             0             7             1      12.29161      5.978786      3.930606
114             0             7             1      1.435442      9.405148      4.069623
115             0             5      -0.77375      11.56606      4.570813      3.487219
116             0             1      -1.13375      6.191731      19.09784      4.556983
117             0             1      -1.13375      13.44308      5.615296      4.986856
118             0             3      -0.86375      12.84187      6.486202      2.473488
119             0             3      -0.86375      1.356934      8.338599      2.834205
120             0             1      -1.13375      8.274426      22.11482      4.526706
121             0             1      -1.13375      2.251022      8.648325      5.222088
122             0             2           1.5      12.79236      6.007408      7.327821
123             0             2           1.5      1.757451      8.918524      7.539131
124             0             7             1      2.890062      5.727041       8.33382
125             0             7             1      1.099747      3.151027      8.431704
126             0             3      -0.86375      3.288268      6.543903      9.673214
127             0             1      -1.13375      4.138801       5.13561      7.549005
128             0             1      -1.13375      1.956979      6.615377      7.379801
129             0             5      -0.77375      1.956576      4.481656      8.873322
130             0             1      -1.13375      2.016463      2.155729      7.592001
131             0             1      -1.13375      13.14714       3.63347       7.51249
132             0             3      -0.86375     0.6149286      2.640564      9.893657
133             0             2           1.5      3.962819      18.40409      4.703617
134             0             2           1.5      2.051255      15.25211       4.84204
135             0             7             1      13.76858      18.11875      3.822707
136             0             7             1      16.07251      21.57981      3.860363
137             0             5      -0.77375      12.97587      16.75716      3.388834
138             0             1      -1.13375      12.83695      19.08693      4.675475
139             0             1      -1.13375      15.02728      17.67512      4.706075
140             0             3      -0.86375      14.13812      18.64503      2.329325
141             0             3      -0.86375      15.69381      20.72579      2.532552
142             0             1      -1.13375       14.8114      22.13479      4.647449
143             0             1      -1.13375      3.763756      20.72701      4.813794
144             0             2           1.5      14.37484      18.12008      7.076787
145             0             2           1.5       3.31472      21.01294      7.214719
146             0             7             1      4.277698      17.87714      8.132426
147             0             7             1      2.561173      15.24836      8.280252
148             0             3      -0.86375      4.421043      18.89232       9.39406
149             0             1      -1.13375      10.69013      5.151473        7.6344
150             0             1      -1.13375      3.459714      18.68187      7.012956
151             0             5      -0.77375      3.242507      16.70575      8.693882
152             0             1      -1.13375      8.688641      2.143462      7.694405
153             0             1      -1.13375      14.69708      15.59924      7.201803
154             0             3      -0.86375      15.23257      14.78475      9.741966
155             0             2           1.5      4.858535     0.1986416      4.610791
156             0             2           1.5      6.183596      21.30178      4.901187
157             0             7             1      4.563821      24.16349      3.767714
158             0             7             1       3.75831      3.407759      3.818506
159             0             5      -0.77375      3.653733      22.87665      3.294538
160             0             1      -1.13375     0.4997775     0.9061711      4.676326
161             0             1      -1.13375      5.805159      23.63386      4.629785
162             0             3      -0.86375      1.834618      0.548241      2.344665
163             0             3      -0.86375      3.423107      2.662012      2.400069
164             0             1      -1.13375      2.483472      3.969926      4.577709
165             0             1      -1.13375      4.641597      2.473832      4.773603
166             0             2           1.5      5.173332      24.18549       6.99517
167             0             2           1.5      4.244135      2.812213      7.181019
168             0             7             1      8.328999      23.94964      8.059248
169             0             7             1      6.670203      21.33709      8.315423
170             0             3      -0.86375      5.233513     0.8720064      9.224602
171             0             1      -1.13375      1.504485      11.24822      7.631671
172             0             1      -1.13375      4.318274     0.4361144      6.892226
173             0             5      -0.77375      7.365961      22.78061      8.726144
174             0             1      -1.13375      12.78864      8.205212       7.75155
175             0             1      -1.13375      5.541937      21.67553      7.223685
176             0             3      -0.86375      6.024614      20.89742      9.765291
177             0             6           1.7      2.909262      10.39274      12.11449
178             0             6           1.7      7.048501      16.50789      11.98874
179             0             6           1.7      5.868386      4.339944       11.6463
180             0             6           1.7      9.988608        10.379      11.60678
181             0             6           1.7      11.13666      22.50683      12.11449
182             0             6           1.7      12.09353      4.393802      11.98874
183             0             6           1.7      14.09578      16.45403       11.6463
184             0             6           1.7      4.943579      22.49309      11.60678
185             0             6           1.7      7.285567      13.79677    -0.2748788
186             0             6           1.7      11.43966      19.78658    -0.2455057
187             0             6           1.7      9.431549      7.716918    -0.5648568
188             0             6           1.7      13.57382      13.81016    -0.5502424
189             0             6           1.7       12.3306      1.682677    -0.2748788
190             0             6           1.7      3.212268      7.672489    -0.2455057
191             0             6           1.7      4.386519      19.83101    -0.5648568
192             0             6           1.7      5.346424      1.696068    -0.5502424
193             0             3      -0.86375      5.597377      22.22374      11.60678
194             0            11           0.4      5.212925      23.14689      11.60678
195             0             3      -0.86375        7.7023      16.23854      11.98874
196             0            11           0.4      7.317848      17.16169      11.98874
197             0             3      -0.86375      10.64241      10.10965      11.60678
198             0            11           0.4      10.25795       11.0328      11.60678
199             0             3      -0.86375      11.79045      22.23748      12.11449
200             0            11           0.4        11.406      23.16062      12.11449
201             0             3      -0.86375      6.522185      4.070598       11.6463
202             0            11           0.4      6.137732      4.993743       11.6463
203             0             3      -0.86375      12.74733      4.124456      11.98874
204             0            11           0.4      12.36288      5.047601      11.98874
205             0             3      -0.86375      3.563061      10.12339      12.11449
206             0            11           0.4      3.178608      11.04654      12.11449
207             0             3      -0.86375      14.74958      16.18469       11.6463
208             0            11           0.4      14.36513      17.10783       11.6463
209             0             3      -0.86375      6.000223      1.426722    -0.5502424
210             0            11           0.4      5.615771      2.349866    -0.5502424
211             0             3      -0.86375       12.9844      1.413331    -0.2748788
212             0            11           0.4      12.59994      2.336475    -0.2748788
213             0             3      -0.86375      5.040318      19.56166    -0.5648568
214             0            11           0.4      4.655865      20.48481    -0.5648568
215             0             3      -0.86375      14.22762      13.54081    -0.5502424
216             0            11           0.4      13.84316      14.46396    -0.5502424
217             0             3      -0.86375      10.08535      7.447571    -0.5648568
218             0            11           0.4      9.700895      8.370716    -0.5648568
219             0             3      -0.86375      3.866067      7.403143    -0.2455057
220             0            11           0.4      3.481614      8.326288    -0.2455057
221             0             3      -0.86375      7.939366      13.52742    -0.2748788
222             0            11           0.4      7.554913      14.45056    -0.2748788
223             0             3      -0.86375      12.09346      19.51723    -0.2455057
224             0            11           0.4      11.70901      20.44038    -0.2455057
225             0            11           0.4      8.276212      13.02784      9.658985
226             0            11           0.4      5.619489      9.100926       9.91093
227             0            11           0.4      12.43881      19.04244      9.673214
228             0            11           0.4      9.765466      15.13911      9.893657
229             0            11           0.4      10.38922      7.162681       9.39406
230             0            11           0.4      7.928327      3.055111      9.741966
231             0            11           0.4      14.38405      13.37055      9.224602
232             0            11           0.4      11.99279      9.167784      9.765291
233             0            11           0.4      13.32124     0.9137528      9.658985
234             0            11           0.4      13.84688      21.21502       9.91093
235             0            11           0.4      4.211413      6.928355      9.673214
236             0            11           0.4      1.538073      3.025017      9.893657
237             0            11           0.4      5.344188      19.27677       9.39406
238             0            11           0.4      16.15572       15.1692      9.741966
239             0            11           0.4      6.156658      1.256459      9.224602
240             0            11           0.4      6.947759      21.28187      9.765291
241             0            11           0.4      4.685396      12.86473      2.442642
242             0            11           0.4      6.350931      14.79611      2.828099
243             0            11           0.4       8.71999      18.98474      2.473488
244             0            11           0.4      10.50747      20.83714      2.834205
245             0            11           0.4      6.833875      6.915396      2.329325
246             0            11           0.4      8.389559       8.99615      2.532552
247             0            11           0.4      10.98516      13.04678      2.344665
248             0            11           0.4      12.57364      15.16055      2.400069
249             0            11           0.4      9.730425     0.7506407      2.442642
250             0            11           0.4      11.39596      2.682021      2.828099
251             0            11           0.4      13.76502      6.870655      2.473488
252             0            11           0.4      2.280079      8.723051      2.834205
253             0            11           0.4      15.06127      19.02948      2.329325
254             0            11           0.4      16.61695      21.11024      2.532552
255             0            11           0.4      2.757763     0.9326936      2.344665
256             0            11           0.4      4.346252      3.046465      2.400069
257             0             2           1.5       8.26915       15.0759      19.43484
258             0             2           1.5      6.018808      12.18989      19.74751
259             0             6           1.7       10.9018      19.90523      24.63356
260             0             7             1      4.921205      15.36671      20.50565
261             0             7             1      6.701609      17.94557       20.6533
262             0             3      -0.86375      4.575645      14.49459      21.82728
263             0             1      -1.13375      8.685017      3.825471       19.7648
264             0             1      -1.13375      5.852083      14.50968       19.5256
265             0             5      -0.77375      5.802092      16.63283      21.07818
266             0             1      -1.13375       10.8126      6.860686      19.87626
267             0             1      -1.13375      7.888877       17.4569      19.68642
268             0             3      -0.86375      7.282148      18.41304      22.09689
269             0             2           1.5       5.42746      14.76562      17.15538
270             0             2           1.5      7.318572      17.95616      17.36863
271             0             6           1.7      10.99585      22.36371      12.58591
272             0             7             1      8.789218      15.10258      16.07541
273             0             7             1      6.378757      11.65112      16.29531
274             0             5      -0.77375      9.492241      16.55282      15.68785
275             0             1      -1.13375      9.846875      14.09304       16.6775
276             0             1      -1.13375      7.643675      15.45405      17.14414
277             0             3      -0.86375      8.173314      14.66661      14.61447
278             0             3      -0.86375      6.479325      12.77826       15.1144
279             0             1      -1.13375      7.770197      11.04769      16.74458
280             0             1      -1.13375      5.560532      12.41072       17.4483
281             0             2           1.5      12.36793      21.16089      19.55004
282             0             2           1.5       10.1346      18.24277      19.74247
283             0             6           1.7      6.520093      13.83181      25.01137
284             0             7             1      9.004668       21.4399       20.5214
285             0             7             1      10.79168       24.0192      20.64678
286             0             3      -0.86375      8.618365      20.63155      21.86489
287             0             1      -1.13375      12.79234      9.914079      19.75302
288             0             1      -1.13375      9.936523      20.54903      19.56963
289             0             5      -0.77375      9.932491      22.68474      21.07296
290             0             1      -1.13375      14.90741      12.91658      19.84403
291             0             1      -1.13375      12.00428      23.54213      19.70933
292             0             3      -0.86375      11.31069      24.50587      22.10859
293             0             2           1.5      9.525663      20.84737      17.18313
294             0             2           1.5      11.42609      24.00237      17.34976
295             0             6           1.7      7.019377      16.30041      12.78199
296             0             7             1      12.89347      21.17382      16.12815
297             0             7             1      10.48833        17.734       16.2901
298             0             5      -0.77375      5.381932      10.48158      15.70487
299             0             1      -1.13375      13.95263      20.15822      16.72677
300             0             1      -1.13375      11.74396      21.52421      17.18945
301             0             3      -0.86375      12.32047      20.69546      14.66227
302             0             3      -0.86375       10.5774      18.80809       15.0634
303             0             1      -1.13375      11.87458      17.13363      16.74674
304             0             1      -1.13375       9.66683      18.49261      17.43577
305             0             2           1.5      10.76557      9.056836      19.33746
306             0             2           1.5      8.581943      6.135219      19.44748
307             0             6           1.7       13.5931      13.69702      24.62714
308             0             7             1      7.585997        9.2702      20.40091
309             0             7             1      9.320212       11.9004       20.5449
310             0             3      -0.86375      7.414086      8.326154      21.71296
311             0             1      -1.13375      6.235218      9.896577      19.87233
312             0             1      -1.13375      8.391023       8.43595      19.28978
313             0             5      -0.77375      8.659248      10.42591      20.92196
314             0             1      -1.13375      8.241342      12.89882      19.96045
315             0             1      -1.13375      10.45711       11.5679      19.45869
316             0             3      -0.86375      9.939427        12.335      22.00805
317             0             2           1.5      7.953759      8.745049      16.95003